% Model:              Periodic.mph
% Version:            COMSOL 5.3.1.275
% Date:               Jul 27 2021, 18:58
% Dimension:          1
% Nodes:              333
% Expressions:        1
% Description:        Line graph
% X                       Height
-2.5E-4                   300
-2.444000988360268E-4     300.04276638152623
-2.3880019767205367E-4    300.0856926152939
-2.3320029650808043E-4    300.128778701303
-2.2760039534410723E-4    300.1720246395535
-2.2200049418013407E-4    300.2154304300455
-2.1640059301616086E-4    300.2589960727789
-2.108006918521877E-4     300.3028930528326
-2.052007906882145E-4     300.3473197229992
-1.996008895242413E-4     300.39227608327883
-1.9400098836026808E-4    300.43776213367147
-1.8840108719629488E-4    300.4837778741771
-1.828011860323217E-4     300.53032330479584
-1.7720128486834851E-4    300.5775658610888
-1.7160138370437533E-4    300.625846811881
-1.660014825404021E-4     300.6751661571724
-1.604015813764289E-4     300.72552389696307
-1.5480168021245574E-4    300.77692003125304
-1.4920177904848253E-4    300.8293545600423
-1.436190557606766E-4     300.882872797465
-1.3803633247287068E-4    300.9382776352799
-1.3245360918506474E-4    300.995569073487
-1.268708858972588E-4     301.0547471120863
-1.2128816260945286E-4    301.11581175107784
-1.1570543932164692E-4    301.17876299046156
-1.1077628533536007E-4    301.23634516949363
-1.0584713134907322E-4    301.2966715200813
-1.0091797736278636E-4    301.35974204222464
-9.59888233764995E-5      301.42555673592364
-9.105966939021265E-5     301.4941156011783
-8.61305154039258E-5      301.56541863798856
-8.2395812504828E-5       301.62178139923617
-7.866110960573021E-5     301.68112674283645
-7.492640670663241E-5     301.74345466878924
-7.119170380753461E-5     301.80876517709464
-6.745700090843682E-5     301.8770582677527
-6.372229800933903E-5     301.94833394076335
-6.095791310619755E-5     302.0035836109406
-5.819352820305606E-5     302.06187005947595
-5.542914329991457E-5     302.1231932863694
-5.2664758396773085E-5    302.18755329162093
-4.990037349363159E-5     302.2549500752307
-4.713598859049011E-5     302.3253836371984
-4.50899056303781E-5      302.38004817137573
-4.304382267026608E-5     302.4377836784772
-4.0997739710154065E-5    302.4985901585028
-3.895165675004205E-5     302.5624676114526
-3.690557378993004E-5     302.62941603732656
-3.4859490829818026E-5    302.6994354361247
-3.3345065413043987E-5    302.7538072137422
-3.183063999626994E-5     302.81127207752684
-3.0316214579495895E-5    302.8718300274786
-2.880178916272185E-5     302.93548106359754
-2.728736374594781E-5     303.0022251858837
-2.5772938329173764E-5    303.07206239433697
-2.4652023030365227E-5    303.1263290725308
-2.3531107731556686E-5    303.1837045506353
-2.2410192432748146E-5    303.2441888286507
-2.1289277133939602E-5    303.30778190657685
-2.0168361835131065E-5    303.37448378441377
-1.9047446536322525E-5    303.4442944621615
-1.8217792593358873E-5    303.49855249188516
-1.7388138650395222E-5    303.55593881311046
-1.655848470743157E-5     303.61645342583745
-1.572883076446792E-5     303.68009633006614
-1.4899176821504268E-5    303.7468675257966
-1.4069522878540614E-5    303.8167670130287
-1.3455445803802796E-5    303.8710989977733
-1.2841368729064974E-5    303.92858180779683
-1.2227291654327154E-5    303.9892154430993
-1.1613214579589334E-5    304.0529999036807
-1.0999137504851514E-5    304.119935189541
-1.0385060430113694E-5    304.1900213006803
-9.930547002969126E-6     304.24452296277923
-9.47603357582456E-6      304.30220655640886
-9.021520148679993E-6     304.36307208156916
-8.567006721535425E-6     304.42711953826023
-8.11249329439086E-6      304.4943489264821
-7.657979867246292E-6     304.5647602462347
-7.3215686818450845E-6    304.61952191180444
-6.985157496443875E-6     304.6775200873698
-6.648746311042666E-6     304.73875477293086
-6.312335125641458E-6     304.80322596848754
-5.975923940240249E-6     304.87093367404
-5.639512754839041E-6     304.94187788958806
-5.3905159574743635E-6    304.99706927168296
-5.1415191601096855E-6    305.0555971117178
-4.8925223627450084E-6    305.1174614096926
-4.6435255653803305E-6    305.1826621656073
-4.3945287680156525E-6    305.25119937946204
-4.145531970650975E-6     305.3230730512566
-3.9612357905839715E-6    305.378961261583
-3.7769396105169676E-6    305.43833616768876
-3.5926434304499637E-6    305.5011977695739
-3.4083472503829594E-6    305.5675460672383
-3.224051070315956E-6     305.63738106068206
-3.0397548902489516E-6    305.7107027499052
-2.903347643208751E-6     305.76755893397063
-2.766940396168551E-6     305.82799487141614
-2.6305331491283504E-6    305.89201056224164
-2.4941259020881496E-6    305.95960600644725
-2.3577186550479496E-6    306.03078120403285
-2.2213114080077488E-6    306.10553615499856
-2.120349935107673E-6     306.1632615650947
-2.019388462207597E-6     306.224502338173
-1.918426989307521E-6     306.2892584742335
-1.817465516407445E-6     306.3575299732763
-1.7165040435073693E-6    306.4293168353014
-1.6155425706072935E-6    306.50461906030876
-1.5408172062798066E-6    306.5626027008544
-1.46609184195232E-6      306.62395069482704
-1.391366477624833E-6     306.6886630422267
-1.3166411132973464E-6    306.75673974305334
-1.2419157489698594E-6    306.8281807973071
-1.1671903846423727E-6    306.90298620498777
-1.1118834129596103E-6    306.96057420229187
-1.0565764412768478E-6    307.02152782186135
-1.0012694695940851E-6    307.08584706369635
-9.459624979113226E-7     307.1535319277968
-8.906555262285601E-7     307.22458241416274
-8.353485545457977E-7     307.29899852279414
-7.944026782760037E-7     307.35642263737685
-7.534568020062098E-7     307.41744865675537
-7.125109257364158E-7     307.48207658092963
-6.715650494666219E-7     307.55030640989963
-6.306191731968279E-7     307.6221381436655
-5.89673296927034E-7      307.6975717822271
-5.593707321838879E-7     307.7559899372195
-5.290681674407418E-7     307.8185419534901
-4.987656026975956E-7     307.88522783103895
-4.684630379544495E-7     307.95604756986603
-4.3816047321130335E-7    308.03100116997126
-4.0785790846815726E-7    308.1100886313548
-3.854360562079728E-7     308.17171131129635
-3.6301420394778833E-7    308.23848295598384
-3.4059235168760384E-7    308.3104035654173
-3.1817049942741934E-7    308.38747313959675
-2.957486471672349E-7     308.4696916785223
-2.7332679490705046E-7    308.5570591821938
-2.567198247706537E-7     308.6258500035652
-2.401128546342569E-7     308.7020539908455
-2.2350588449786015E-7    308.78567114403484
-2.0689891436146335E-7    308.8767014631331
-1.9029194422506656E-7    308.9751449481404
-1.736849740886698E-7     309.08100159905666
-1.614041450738915E-7     309.16606860027576
-1.491233160591132E-7     309.2739639660278
-1.368424870443349E-7     309.4046876963126
-1.2456165802955658E-7    309.55823979113023
-1.1228082901477829E-7    309.7346202504808
-1.0E-7                   309.9338290743642
-1.0E-7                   320.7801057029807
-1.0E-7                   320.89828494558276
-1.0E-7                   320.995011662118
-1.0E-7                   321.07028585258627
-1.0E-7                   321.12410751698764
-1.0E-7                   321.1564766553222
-1.0E-7                   321.16739326758983
-8.797575623348772E-8     321.1683006222817
-7.595151246697545E-8     321.16955840259646
-6.392726870046317E-8     321.1711666085342
-5.190302493395089E-8     321.1731252400948
-3.9878781167438603E-8    321.17543429727846
-2.785453740092633E-8     321.17809378008496
-1.7134677838130833E-8    321.17957045540925
-6.414818275335331E-9     321.1803509137808
4.30504128746017E-9       321.1804351551995
1.5024900850255668E-8     321.17982317966556
2.5744760413051176E-8     321.17851498717886
3.646461997584667E-8      321.17651057773946
4.7053849979872225E-8     321.17409665414306
5.764307998389778E-8      321.1720473107206
6.823230998792333E-8      321.17036254747217
7.882153999194889E-8      321.1690423643978
8.941076999597444E-8      321.1680867614974
1.0E-7                    321.1674957387711
1.0E-7                    321.1565598512212
1.0E-7                    321.12416226337484
1.0E-7                    321.07030297523227
1.0E-7                    320.99498198679333
1.0E-7                    320.8981992980581
1.0E-7                    320.7799549090265
1.0E-7                    309.9322182572509
1.1228082901477945E-7     309.73378676797586
1.2456165802955894E-7     309.5579323514759
1.3684248704433838E-7     309.40465500775116
1.4912331605911783E-7     309.27395473680144
1.6140414507389733E-7     309.1658315386269
1.7368497408867677E-7     309.0802854132274
1.9029194422506944E-7     308.97440938116085
2.068989143614621E-7      308.87593130216044
2.2350588449785475E-7     308.78485117622614
2.401128546342474E-7      308.701169003358
2.567198247706401E-7      308.62488478355607
2.7332679490703273E-7     308.55599851682024
2.9574864716721966E-7     308.46858132404606
3.181704994274066E-7      308.38630100059777
3.4059235168759346E-7     308.3091575464753
3.6301420394778034E-7     308.2371509616787
3.854360562079673E-7      308.17028124620805
4.078579084681542E-7      308.10854840006317
4.3816047321129234E-7     308.0293572736012
4.684630379544304E-7      307.9542946710208
4.987656026975685E-7      307.88336059232205
5.290681674407066E-7      307.81655503750494
5.593707321838448E-7      307.75387800656944
5.896732969269829E-7      307.69532949951554
6.306191731967902E-7      307.619767632601
6.715650494665976E-7      307.54781261885097
7.12510925736405E-7       307.47946445826534
7.534568020062124E-7      307.4147231508442
7.944026782760198E-7      307.35358869658756
8.353485545458273E-7      307.2960610954954
8.906555262285874E-7      307.22155570295257
9.459624979113474E-7      307.15042766253396
1.0012694695941074E-6     307.0826769742396
1.0565764412768673E-6     307.0183036380694
1.1118834129596274E-6     306.95730765402357
1.1671903846423873E-6     306.89968902210194
1.2419157489698687E-6     306.8248903919599
1.3166411132973503E-6     306.753473622324
1.3913664776248318E-6     306.6854387131942
1.466091841952313E-6      306.6207856645704
1.5408172062797948E-6     306.55951447645276
1.6155425706072761E-6     306.50162514884113
1.7165040435073468E-6     306.4264794772169
1.8174655164074172E-6     306.3548405972826
1.918426989307488E-6      306.28670850903814
2.019388462207558E-6      306.22208321248354
2.120349935107629E-6      306.16096470761886
2.2213114080076992E-6     306.103352994444
2.357718655047906E-6      306.0287623605018
2.4941259020881127E-6     305.95773403353684
2.63053314912832E-6       305.89026801354913
2.7669403961685262E-6     305.8263643005386
2.9033476432087334E-6     305.7660228945054
3.03975489024894E-6       305.70924379544937
3.224051070315943E-6      305.63602539201827
3.408347250382944E-6      305.56628335651016
3.5926434304499464E-6     305.5000176889251
3.776939610516948E-6      305.437228389263
3.96123579058395E-6       305.37791545752395
4.1455319706509525E-6     305.32207889370795
4.394528768015631E-6      305.250267405174
4.64352556538031E-6       305.1817866782317
4.892522362744989E-6      305.116636712881
5.141519160109668E-6      305.05481750912196
5.3905159574743466E-6     304.9963290669547
5.639512754839025E-6      304.941171386379
5.975923940240231E-6      304.8702697325959
6.312335125641438E-6      304.80260058438563
6.648746311042643E-6      304.7381639417482
6.985157496443849E-6      304.67695980468363
7.321568681845056E-6      304.6189881731919
7.657979867246261E-6      304.564249047273
8.112493294390836E-6      304.4938674772311
8.56700672153541E-6       304.42666637736994
9.021520148679984E-6      304.3626457476895
9.476033575824559E-6      304.3018055881898
9.930547002969135E-6      304.24414589887084
1.0385060430113709E-5     304.18966667973257
1.0999137504851527E-5     304.11959911919143
1.1613214579589347E-5     304.05268026461704
1.2227291654327164E-5     303.98891011600944
1.2841368729064983E-5     303.9282886733686
1.3455445803802803E-5     303.8708159366946
1.4069522878540621E-5     303.8164919059874
1.4899176821504276E-5     303.74661039090694
1.572883076446793E-5      303.6798551296603
1.655848470743158E-5      303.6162261222475
1.7388138650395232E-5     303.55572336866845
1.8217792593358884E-5     303.4983468689233
1.904744653632254E-5      303.44409662301194
2.0168361835131075E-5     303.374293713074
2.128927713393961E-5      303.3075998059351
2.241019243274814E-5      303.24401490159516
2.353110773155667E-5      303.1835390000542
2.4652023030365206E-5     303.12617210131236
2.5772938329173736E-5     303.0719142053695
2.7287363745947796E-5     303.0020842152063
2.880178916272185E-5      302.9353452476199
3.03162145794959E-5       302.8716973026103
3.1830639996269954E-5     302.81114038017745
3.3345065413044014E-5     302.7536744803215
3.4859490829818066E-5     302.6992996030422
3.690557378993009E-5      302.62928937921225
3.895165675004212E-5      302.56234752647794
4.099773971015413E-5      302.49847404483916
4.304382267026615E-5      302.4376689342961
4.508990563037817E-5      302.3799321948486
4.713598859049019E-5      302.3252638264968
4.9900373493631686E-5     302.25483989729656
5.266475839677318E-5      302.18744899723333
5.5429143299914667E-5     302.123091126307
5.8193528203056153E-5     302.0617662845175
6.095791310619765E-5      302.003474471865
6.372229800933914E-5      301.94821568834936
6.745700090843694E-5      301.8769568180236
7.119170380753473E-5      301.80867097499157
7.492640670663252E-5      301.7433581592533
7.86611096057303E-5       301.6810183708088
8.239581250482812E-5      301.62165160965804
8.613051540392591E-5      301.565257875801
9.105966939021189E-5      301.49400255627796
9.598882337649785E-5      301.4254892286628
1.0091797736278381E-4     301.3597178929555
1.0584713134906977E-4     301.29668854915604
1.1077628533535575E-4     301.2364011972645
1.1570543932164172E-4     301.1788558372809
1.2128816260944858E-4     301.11589521901647
1.2687088589725538E-4     301.054817712144
1.3245360918506222E-4     300.99562331666334
1.3803633247286905E-4     300.93831203257474
1.436190557606759E-4      300.88288385987806
1.4920177904848272E-4     300.82933879857336
1.548016802124559E-4      300.77690474152007
1.6040158137642908E-4     300.725508832425
1.6600148254040226E-4     300.6751510712883
1.7160138370437544E-4     300.6258314581099
1.7720128486834862E-4     300.57754999288983
1.8280118603232183E-4     300.530306675628
1.8840108719629504E-4     300.4837646687236
1.9400098836026822E-4     300.4377496005897
1.996008895242414E-4      300.39226147122645
2.0520079068821458E-4     300.3473002806337
2.1080069185218776E-4     300.3028660288116
2.1640059301616095E-4     300.25895871576
2.2200049418013413E-4     300.2154025306893
2.2760039534410733E-4     300.17200490526284
2.332002965080805E-4      300.12876583948065
2.3880019767205367E-4     300.0856853333428
2.444000988360268E-4      300.04276338684923
2.5E-4                    300
