% Model:              Estacionari diferencies.mph
% Version:            COMSOL 5.3.1.275
% Date:               Jul 27 2021, 19:02
% Dimension:          1
% Nodes:              24039
% Expressions:        1
% Description:        Line graph
% X                       Height
-2.5E-4                   300.00000187439286
-2.499591666666667E-4     300.0002712429769
-2.499183333333334E-4     300.0005406115609
-2.498775000000001E-4     300.00080998014494
-2.4983667667333507E-4    300.0010790015482
-2.4979585334667E-4       300.0013480229514
-2.49755030020005E-4      300.00161704435465
-2.4971421670000836E-4    300.00188664612205
-2.4967340338001175E-4    300.0021562478894
-2.496325900600151E-4     300.0024258496568
-2.495917867466867E-4     300.002695193009
-2.4955098343335837E-4    300.0029645363612
-2.4951018012003E-4       300.00323387971343
-2.4946938681337E-4       300.00350313361554
-2.4942859350671E-4       300.00377238751764
-2.4938780020004994E-4    300.00404164141975
-2.4934701690005836E-4    300.0043108709531
-2.4930623360006673E-4    300.0045801004864
-2.492654503000751E-4     300.00484933001974
-2.4922467700675175E-4    300.0051185669032
-2.491839037134284E-4     300.0053878037867
-2.491431304201051E-4     300.00565704067014
-2.491023671334501E-4     300.0059262518074
-2.49061603846795E-4      300.0061954629446
-2.4902084056014E-4       300.0064646740819
-2.4898008728015337E-4    300.0067337414908
-2.4893933400016666E-4    300.0070028088997
-2.4889858072018E-4       300.0072718763086
-2.488578374468617E-4     300.0075406955759
-2.488170941735433E-4     300.0078095148432
-2.48776350900225E-4      300.0080783341105
-2.4873561763357496E-4    300.00834715459257
-2.4869488436692495E-4    300.0086159750746
-2.48654151100275E-4      300.0088847955566
-2.4861342784029337E-4    300.0091536286468
-2.4857270458031165E-4    300.00942246173696
-2.4853198132033E-4       300.0096912948272
-2.4849126806701665E-4    300.009960155362
-2.4845055481370333E-4    300.0102290158968
-2.4840984156039E-4       300.01049787643166
-2.48369138313745E-4      300.010766760252
-2.483284350671E-4        300.01103564407236
-2.48287731820455E-4      300.0113045278927
-2.482470385804784E-4     300.01157326794555
-2.482063453405017E-4     300.0118420079983
-2.48165652100525E-4      300.0121107480511
-2.4812496886721666E-4    300.0123793215423
-2.480842856339083E-4     300.0126478950335
-2.480436024006E-4        300.01291646852474
-2.4800292917396004E-4    300.0131849479329
-2.479622559473201E-4     300.01345342734106
-2.4792158272068015E-4    300.0137219067492
-2.478809195007085E-4     300.0139903207771
-2.478402562807368E-4     300.0142587348051
-2.4779959306076515E-4    300.014527148833
-2.4775893984746184E-4    300.0147954393579
-2.4771828663415854E-4    300.01506372988274
-2.4767763342085523E-4    300.0153320204076
-2.476369902142202E-4     300.015600278678
-2.4759634700758526E-4    300.01586853694835
-2.4755570380095024E-4    300.0161367952187
-2.475150706009836E-4     300.01640507111443
-2.474744374010169E-4     300.0166733470102
-2.474338042010503E-4     300.01694162290596
-2.4739318100775197E-4    300.01720995571367
-2.4735255781445364E-4    300.0174782885213
-2.473119346211553E-4     300.017746621329
-2.472713214345253E-4     300.01801495557805
-2.472307082478953E-4     300.018283289827
-2.4719009506126533E-4    300.01855162407605
-2.4714949188130376E-4    300.018819771108
-2.47108888701342E-4      300.0190879181399
-2.4706828552138033E-4    300.01935606517185
-2.4702769234808704E-4    300.0196239463647
-2.469870991747937E-4     300.01989182755744
-2.4694650600150036E-4    300.02015970875027
-2.469059228348754E-4     300.02042751854816
-2.468653396682504E-4     300.02069532834605
-2.4682475650162543E-4    300.02096313814394
-2.467841833416688E-4     300.02123098362097
-2.467436101817121E-4     300.021498829098
-2.467030370217554E-4     300.021766674575
-2.4666247386846707E-4    300.0220346499788
-2.4662191071517876E-4    300.02230262538257
-2.465813475618904E-4     300.0225706007863
-2.4654079441527044E-4    300.0228385955668
-2.465002412686505E-4     300.0231065903472
-2.4645968812203053E-4    300.0233745851276
-2.464191449820789E-4     300.02364238835895
-2.4637860184212725E-4    300.02391019159035
-2.4633805870217563E-4    300.0241779948217
-2.4629752556889226E-4    300.02444564325157
-2.462569924356089E-4     300.02471329168145
-2.4621645930232556E-4    300.02498094011133
-2.461759361757106E-4     300.02524847270496
-2.4613541304909555E-4    300.0255160052985
-2.460948899224806E-4     300.02578353789215
-2.460543768025339E-4     300.0260509413971
-2.4601386368258726E-4    300.02631834490205
-2.459733505626406E-4     300.026585748407
-2.4593284744936223E-4    300.02685314191734
-2.4589234433608395E-4    300.0271205354277
-2.458518412228056E-4     300.027387928938
-2.4581134811619556E-4    300.02765536516205
-2.457708550095855E-4     300.027922801386
-2.4573036190297557E-4    300.02819023761003
-2.4568987880303403E-4    300.0284576591801
-2.4564939570309244E-4    300.0287250807501
-2.4560891260315084E-4    300.02899250232014
-2.4556843950987743E-4    300.0292597949067
-2.455279664166041E-4     300.0295270874932
-2.4548749332333077E-4    300.02979438007975
-2.454470302367258E-4     300.0300615837864
-2.454065671501208E-4     300.030328787493
-2.4536610406351584E-4    300.03059599119956
-2.453256509835792E-4     300.03086315654303
-2.4528519790364246E-4    300.0311303218865
-2.452447448237058E-4     300.03139748723
-2.452043017504375E-4     300.03166463294974
-2.4516385867716915E-4    300.0319317786695
-2.451234156039009E-4     300.03219892438926
-2.4508298253730085E-4    300.03246598663844
-2.450425494707009E-4     300.03273304888756
-2.4500211640410095E-4    300.03300011113674
-2.449616933441693E-4     300.03326716795664
-2.4492127028423764E-4    300.03353422477653
-2.44880847224306E-4      300.0338012815964
-2.448404341710427E-4     300.03406824156343
-2.448000211177794E-4     300.03433520153044
-2.447596080645161E-4     300.03460216149745
-2.447192050179211E-4     300.03486902542016
-2.446788019713261E-4     300.0351358893428
-2.446383989247311E-4     300.0354027532655
-2.4459800588480453E-4    300.0356695182551
-2.4455761284487783E-4    300.03593628324467
-2.4451721980495124E-4    300.03620304823426
-2.4447683677169293E-4    300.0364698492135
-2.4443645373843463E-4    300.0367366501927
-2.443960707051763E-4     300.037003451172
-2.443556976785863E-4     300.037270293626
-2.443153246519963E-4     300.03753713608
-2.4427495162540635E-4    300.03780397853404
-2.4423458860548474E-4    300.03807066508136
-2.441942255855631E-4     300.0383373516286
-2.441538625656414E-4     300.03860403817595
-2.441135095523881E-4     300.03887046567
-2.4407315653913477E-4    300.03913689316414
-2.440328035258815E-4     300.0394033206582
-2.4399246051929658E-4    300.0396697279016
-2.4395211751271156E-4    300.03993613514496
-2.439117745061266E-4     300.04020254238833
-2.4387144150620995E-4    300.04046898420364
-2.4383110850629324E-4    300.0407354260189
-2.4379077550637656E-4    300.0410018678342
-2.4375045251312828E-4    300.041268347946
-2.437101295198799E-4     300.0415348280579
-2.436698065266316E-4     300.0418013081697
-2.4362949354005166E-4    300.0420678147523
-2.4358918055347164E-4    300.04233432133486
-2.4354886756689173E-4    300.04260082791745
-2.4350856458698011E-4    300.0428671989072
-2.434682616070684E-4     300.04313356989684
-2.434279586271567E-4     300.0433999408865
-2.4338766565391347E-4    300.0436660890997
-2.433473726806702E-4     300.04393223731284
-2.433070797074269E-4     300.044198385526
-2.432667967408519E-4     300.04446435282324
-2.4322651377427687E-4    300.04473032012044
-2.431862308077019E-4     300.0449962874177
-2.4314595784779522E-4    300.04526241795486
-2.431056848878886E-4     300.04552854849203
-2.4306541192798198E-4    300.0457946790292
-2.4302514897474369E-4    300.04606096076327
-2.4298488602150537E-4    300.04632724249734
-2.4294462306826708E-4    300.0465935242314
-2.429043701216971E-4     300.04685962745157
-2.4286411717512707E-4    300.04712573067167
-2.428238642285571E-4     300.0473918338918
-2.4278362128865545E-4    300.0476576944125
-2.4274337834875382E-4    300.04792355493316
-2.4270313540885222E-4    300.0481894154538
-2.4266290247561888E-4    300.0484551016124
-2.426226695423855E-4     300.04872078777095
-2.4258243660915216E-4    300.0489864739295
-2.425422136825872E-4     300.0492523160844
-2.4250199075602223E-4    300.04951815823927
-2.424617678294573E-4     300.04978400039414
-2.4242155490956067E-4    300.0500499875265
-2.4238134198966403E-4    300.0503159746588
-2.423411290697674E-4     300.0505819617912
-2.4230092615653908E-4    300.05084774977246
-2.4226072324331078E-4    300.0511135377537
-2.4222052033008243E-4    300.0513793257349
-2.4218032742352247E-4    300.05164484769034
-2.4214013451696252E-4    300.0519103696458
-2.4209994161040257E-4    300.0521758916012
-2.4205975871051088E-4    300.052441413526
-2.4201957581061918E-4    300.0527069354508
-2.4197939291072755E-4    300.0529724573756
-2.419392200175043E-4     300.0532381488605
-2.4189904712428097E-4    300.05350384034534
-2.4185887423105768E-4    300.05376953183026
-2.4181871134450276E-4    300.0540351645195
-2.417785484579478E-4     300.05430079720884
-2.4173838557139287E-4    300.0545664298981
-2.4169823269150622E-4    300.05483184721305
-2.416580798116195E-4     300.05509726452794
-2.4161792693173285E-4    300.05536268184284
-2.415777840585146E-4     300.0556279333643
-2.4153764118529627E-4    300.0558931848857
-2.41497498312078E-4      300.0561584364071
-2.4145736544552808E-4    300.05642356825206
-2.4141723257897806E-4    300.05668870009697
-2.413770997124281E-4     300.05695383194194
-2.4133697685254648E-4    300.05721914433224
-2.4129685399266483E-4    300.0574844567225
-2.4125673113278324E-4    300.0577497691127
-2.4121661827956992E-4    300.05801528505924
-2.4117650542635654E-4    300.0582808010057
-2.4113639257314327E-4    300.05854631695223
-2.4109628972659831E-4    300.05881160285696
-2.4105618688005333E-4    300.05907688876164
-2.4101608403350838E-4    300.0593421746663
-2.4097599119363172E-4    300.05960725273695
-2.4093589835375506E-4    300.05987233080765
-2.4089580551387848E-4    300.0601374088783
-2.4085572268067013E-4    300.0604023068264
-2.4081563984746182E-4    300.06066720477446
-2.4077555701425355E-4    300.0609321027226
-2.4073548418771358E-4    300.06119699135553
-2.4069541136117364E-4    300.06146187998854
-2.4065533853463367E-4    300.0617267686215
-2.4061527571476202E-4    300.0619917154158
-2.4057521289489036E-4    300.06225666221
-2.4053515007501874E-4    300.0625216090043
-2.404950972618154E-4     300.0627865437344
-2.404550444486121E-4     300.0630514784645
-2.4041499163540882E-4    300.06331641319457
-2.4037494882887385E-4    300.06358126672654
-2.4033490602233887E-4    300.06384612025846
-2.402948632158039E-4     300.0641109737904
-2.4025483041593732E-4    300.0643757992729
-2.4021479761607067E-4    300.0646406247554
-2.4017476481620406E-4    300.0649054502379
-2.4013474202300573E-4    300.06517019915725
-2.4009471922980743E-4    300.06543494807653
-2.4005469643660914E-4    300.06569969699586
-2.4001468365007916E-4    300.06596439295873
-2.399746708635492E-4     300.0662290889216
-2.3993465807701925E-4    300.06649378488447
-2.3989465529715762E-4    300.0667583756277
-2.3985465251729596E-4    300.0670229663709
-2.3981464973743432E-4    300.0672875571142
-2.3977465696424104E-4    300.067552187789
-2.397346641910477E-4     300.0678168184637
-2.3969467141785435E-4    300.06808144913845
-2.396546886513294E-4     300.0683461198153
-2.3961470588480438E-4    300.06861079049213
-2.3957472311827944E-4    300.068875461169
-2.3953475035842282E-4    300.0691400081376
-2.3949477759856622E-4    300.0694045551062
-2.3945480483870962E-4    300.0696691020748
-2.3941484208552134E-4    300.0699334813896
-2.3937487933233304E-4    300.0701978607044
-2.3933491657914473E-4    300.0704622400192
-2.3929496383262477E-4    300.0707265150705
-2.392550110861048E-4     300.07099079012175
-2.3921505833958485E-4    300.07125506517303
-2.391751155997332E-4     300.0715192604268
-2.3913517285988154E-4    300.07178345568053
-2.3909523012002992E-4    300.0720476509343
-2.390552973868466E-4     300.0723117463688
-2.3901536465366328E-4    300.07257584180337
-2.3897543192048E-4       300.0728399372379
-2.3893550919396506E-4    300.0731041780451
-2.3889558646745008E-4    300.07336841885234
-2.3885566374093513E-4    300.07363265965955
-2.3881575102108855E-4    300.07389705629333
-2.3877583830124192E-4    300.0741614529271
-2.3873592558139534E-4    300.0744258495609
-2.3869602286821702E-4    300.0746899680487
-2.386561201550387E-4     300.0749540865364
-2.3861621744186045E-4    300.0752182050242
-2.3857632473535054E-4    300.0754820680071
-2.3853643202884054E-4    300.07574593098997
-2.3849653932233057E-4    300.07600979397284
-2.3845665662248895E-4    300.07627378225214
-2.384167739226473E-4     300.0765377705314
-2.3837689122280565E-4    300.07680175881063
-2.383370185296324E-4     300.0770658766649
-2.3829714583645906E-4    300.0773299945191
-2.3825727314328581E-4    300.0775941123734
-2.3821741045678088E-4    300.07785805230816
-2.3817754777027592E-4    300.0781219922429
-2.3813768508377096E-4    300.0783859321777
-2.3809783240393435E-4    300.07864973024704
-2.380579797240977E-4     300.0789135283163
-2.3801812704426112E-4    300.07917732638566
-2.3797828437109283E-4    300.079441121071
-2.3793844169792448E-4    300.0797049157563
-2.3789859902475618E-4    300.07996871044156
-2.378587663582562E-4     300.080232464544
-2.378189336917562E-4     300.0804962186464
-2.3777910102525625E-4    300.08075997274875
-2.3773927836542467E-4    300.08102362924575
-2.3769945570559307E-4    300.0812872857428
-2.3765963304576146E-4    300.0815509422398
-2.3761982039259815E-4    300.0818144982892
-2.3758000773943486E-4    300.0820780543386
-2.3754019508627158E-4    300.08234161038797
-2.3750039243977667E-4    300.082605277977
-2.3746058979328167E-4    300.08286894556596
-2.374207871467867E-4     300.083132613155
-2.373809945069601E-4     300.08339632786794
-2.3734120186713346E-4    300.08366004258096
-2.373014092273068E-4     300.0839237572939
-2.372616265941486E-4     300.0841872773409
-2.3722184396099028E-4    300.08445079738783
-2.37182061327832E-4      300.08471431743476
-2.3714228870134205E-4    300.08497759827884
-2.3710251607485206E-4    300.08524087912286
-2.3706274344836213E-4    300.0855041599669
-2.3702298082854047E-4    300.0857674280032
-2.3698321820871883E-4    300.0860306960395
-2.3694345558889719E-4    300.08629396407576
-2.3690370297574392E-4    300.0865572797641
-2.3686395036259062E-4    300.08682059545254
-2.3682419774943736E-4    300.0870839111409
-2.3678445514295244E-4    300.08734730423964
-2.3674471253646746E-4    300.08761069733833
-2.367049699299825E-4     300.0878740904371
-2.366652373301659E-4     300.08813750463963
-2.3662550473034925E-4    300.0884009188422
-2.3658577213053265E-4    300.08866433304473
-2.3654604953738433E-4    300.0889276273589
-2.3650632694423594E-4    300.089190921673
-2.364666043510876E-4     300.08945421598713
-2.3642689176460772E-4    300.089717331997
-2.3638717917812775E-4    300.0899804480068
-2.3634746659164784E-4    300.09024356401665
-2.363077640118362E-4     300.09050649009487
-2.3626806143202454E-4    300.0907694161731
-2.3622835885221295E-4    300.0910323422513
-2.3618866627906967E-4    300.09129524345786
-2.3614897370592637E-4    300.09155814466436
-2.361092811327831E-4     300.0918210458709
-2.3606959856630822E-4    300.0920839991021
-2.3602991599983326E-4    300.09234695233323
-2.3599023343335836E-4    300.0926099055644
-2.3595056087355172E-4    300.09287296022154
-2.3591088831374505E-4    300.09313601487867
-2.3587121575393844E-4    300.0933990695358
-2.3583155320080015E-4    300.09366217772083
-2.3579189064766183E-4    300.0939252859058
-2.357522280945236E-4     300.0941883940908
-2.3571257554805367E-4    300.0944513173791
-2.3567292300158367E-4    300.0947142406673
-2.3563327045511375E-4    300.09497716395555
-2.3559362791531212E-4    300.095239842493
-2.355539853755105E-4     300.0955025210304
-2.3551434283570891E-4    300.0957651995679
-2.3547471030257566E-4    300.09602783200324
-2.3543507776944232E-4    300.09629046443854
-2.3539544523630906E-4    300.09655309687383
-2.353558227098441E-4     300.0968157937103
-2.3531620018337913E-4    300.0970784905468
-2.352765776569142E-4     300.0973411873832
-2.352369651371176E-4     300.0976038885093
-2.35197352617321E-4      300.0978665896354
-2.3515774009752444E-4    300.09812929076145
-2.3511813758439617E-4    300.0983918898563
-2.3507853507126784E-4    300.0986544889511
-2.350389325581395E-4     300.098917088046
-2.3499934005167955E-4    300.09917960299634
-2.3495974754521963E-4    300.09944211794675
-2.349201550387597E-4     300.0997046328971
-2.3488057253896809E-4    300.09996707032093
-2.3484099003917645E-4    300.10022950774476
-2.3480140753938487E-4    300.1004919451686
-2.3476183504626165E-4    300.1007545468603
-2.3472226255313834E-4    300.101017148552
-2.346826900600151E-4     300.1012797502437
-2.346431275735601E-4     300.1015423775419
-2.346035650871051E-4     300.10180500484
-2.3456400260065012E-4    300.10206763213813
-2.345244501208635E-4     300.1023300458755
-2.344848976410769E-4     300.10259245961277
-2.344453451612903E-4     300.10285487335005
-2.3440580268817198E-4    300.1031170507343
-2.343662602150537E-4     300.10337922811857
-2.3432671774193544E-4    300.1036414055028
-2.3428718527548553E-4    300.10390353386384
-2.3424765280903557E-4    300.10416566222483
-2.3420812034258563E-4    300.1044277905858
-2.3416859788280404E-4    300.1046899738415
-2.341290754230224E-4     300.10495215709716
-2.3408955296324078E-4    300.1052143403528
-2.3405004051012748E-4    300.10547662639664
-2.3401052805701418E-4    300.1057389124404
-2.3397101560390093E-4    300.10600119848425
-2.3393151315745603E-4    300.1062635039324
-2.3389201071101105E-4    300.10652580938046
-2.3385250826456612E-4    300.1067881148286
-2.3381301582478948E-4    300.10705024009707
-2.337735233850128E-4     300.1073123653655
-2.3373403094523616E-4    300.10757449063397
-2.3369454851212795E-4    300.107836383887
-2.3365506607901963E-4    300.10809827713996
-2.336155836459114E-4     300.108360170393
-2.3357611121947147E-4    300.1086221244609
-2.3353663879303155E-4    300.1088840785288
-2.3349716636659164E-4    300.1091460325967
-2.3345770394682E-4       300.1094080407063
-2.3341824152704835E-4    300.1096700488158
-2.3337877910727673E-4    300.10993205692535
-2.3333932669417342E-4    300.1101940090795
-2.3329987428107014E-4    300.11045596123364
-2.3326042186796686E-4    300.1107179133878
-2.3322097946153192E-4    300.1109797829506
-2.3318153705509698E-4    300.11124165251334
-2.3314209464866208E-4    300.11150352207613
-2.331026622488955E-4     300.11176535832556
-2.3306322984912892E-4    300.1120271945749
-2.3302379744936233E-4    300.11228903082434
-2.3298437505626403E-4    300.11255078052227
-2.3294495266316573E-4    300.11281253022014
-2.3290553027006746E-4    300.113074279918
-2.3286611788363756E-4    300.11333602160533
-2.328267054972076E-4     300.1135977632926
-2.3278729311077768E-4    300.1138595049799
-2.327478907310161E-4     300.11412118280185
-2.3270848835125444E-4    300.1143828606237
-2.3266908597149288E-4    300.1146445384456
-2.3262969359839965E-4    300.1149061562116
-2.3259030122530633E-4    300.11516777397753
-2.325509088522131E-4     300.11542939174353
-2.3251152648578818E-4    300.1156909406698
-2.324721441193632E-4     300.11595248959605
-2.3243276175293823E-4    300.11621403852234
-2.3239338939318164E-4    300.116475671225
-2.32354017033425E-4      300.1167373039276
-2.3231464467366838E-4    300.11699893663024
-2.3227528232058018E-4    300.1172606217146
-2.322359199674919E-4     300.11752230679895
-2.3219655761440368E-4    300.1177839918833
-2.321572052679837E-4     300.1180455420513
-2.3211785292156367E-4    300.1183070922192
-2.320785005751437E-4     300.1185686423871
-2.320391582353922E-4     300.1188300173335
-2.3199981589564064E-4    300.11909139227987
-2.3196047355588908E-4    300.11935276722625
-2.3192114122280578E-4    300.11961403733284
-2.3188180888972248E-4    300.1198753074394
-2.3184247655663918E-4    300.1201365775459
-2.3180315423022423E-4    300.1203978108717
-2.3176383190380925E-4    300.12065904419745
-2.317245095773943E-4     300.1209202775232
-2.3168519725764772E-4    300.12118148797083
-2.316458849379011E-4     300.12144269841843
-2.316065726181545E-4     300.12170390886604
-2.315672703050763E-4     300.1219651198937
-2.31527967991998E-4      300.1222263309213
-2.3148866567891975E-4    300.12248754194894
-2.314493733725098E-4     300.1227487906523
-2.3141008106609986E-4    300.12301003935556
-2.3137078875968994E-4    300.1232712880589
-2.3133150645994832E-4    300.12353251339624
-2.312922241602067E-4     300.1237937387335
-2.312529418604651E-4     300.12405496407087
-2.3121366956739184E-4    300.1243160179948
-2.311743972743186E-4     300.1245770719187
-2.3113512498124534E-4    300.1248381258426
-2.3109586269484038E-4    300.125099101684
-2.3105660040843542E-4    300.12536007752533
-2.3101733812203046E-4    300.12562105336673
-2.3097808584229384E-4    300.1258820391904
-2.3093883356255723E-4    300.12614302501413
-2.308995812828206E-4     300.1264040108378
-2.3086033900975234E-4    300.12666510544835
-2.3082109673668407E-4    300.12692620005885
-2.307818544636158E-4     300.12718729466934
-2.3074262219721588E-4    300.12744843404255
-2.3070338993081592E-4    300.1277095734157
-2.30664157664416E-4      300.12797071278885
-2.3062493540468445E-4    300.12823166612475
-2.3058571314495287E-4    300.1284926194606
-2.305464908852213E-4     300.1287535727965
-2.3050727863215803E-4    300.1290143781311
-2.3046806637909472E-4    300.1292751834657
-2.3042885412603143E-4    300.12953598880034
-2.303896518796365E-4     300.1297967216294
-2.3035044963324154E-4    300.13005745445844
-2.303112473868466E-4     300.13031818728746
-2.3027205514712006E-4    300.13057890495475
-2.3023286290739344E-4    300.130839622622
-2.3019367066766687E-4    300.13110034028927
-2.3015448843460861E-4    300.1313610663945
-2.3011530620155034E-4    300.1316217924997
-2.3007612396849209E-4    300.13188251860487
-2.3003695174210215E-4    300.13214324398785
-2.299977795157122E-4     300.1324039693708
-2.2995860728932226E-4    300.13266469475377
-2.299194450696007E-4     300.13292533324505
-2.2988028284987909E-4    300.1331859717363
-2.298411206301575E-4     300.13344661022757
-2.2980196841710428E-4    300.1337070862661
-2.29762816204051E-4      300.1339675623046
-2.2972366399099775E-4    300.13422803834305
-2.296845217846128E-4     300.1344885710214
-2.2964537957822785E-4    300.13474910369973
-2.2960623737184292E-4    300.1350096363781
-2.2956710517212637E-4    300.13527022249207
-2.2952797297240974E-4    300.13553080860606
-2.2948884077269316E-4    300.13579139472006
-2.294497185796449E-4     300.1360519421613
-2.294105963865966E-4     300.1363124896025
-2.2937147419354836E-4    300.1365730370438
-2.2933236200716844E-4    300.1368335044383
-2.292932498207885E-4     300.13709397183277
-2.2925413763440856E-4    300.13735443922724
-2.2921503545469697E-4    300.13761487595514
-2.291759332749854E-4     300.137875312683
-2.2913683109527383E-4    300.1381357494108
-2.2909773892223058E-4    300.1383961314384
-2.2905864674918733E-4    300.13865651346606
-2.2901955457614405E-4    300.13891689549365
-2.2898047240976915E-4    300.1391772064625
-2.289413902433942E-4     300.1394375174313
-2.2890230807701926E-4    300.13969782840013
-2.2886323591731267E-4    300.1399580491068
-2.2882416375760603E-4    300.1402182698134
-2.2878509159789944E-4    300.14047849051997
-2.2874602944486126E-4    300.14073866203984
-2.2870696729182296E-4    300.14099883355965
-2.2866790513878472E-4    300.1412590050795
-2.286288529924148E-4     300.1415191061536
-2.2858980084604485E-4    300.1417792072277
-2.2855074869967493E-4    300.14203930830183
-2.285117065599733E-4     300.14229952002535
-2.284726644202717E-4     300.1425597317488
-2.2843362228057012E-4    300.1428199434723
-2.2839459014753689E-4    300.14308021073424
-2.283555580145036E-4     300.1433404779961
-2.2831652588147037E-4    300.143600745258
-2.2827750375510543E-4    300.1438608636073
-2.2823848162874046E-4    300.1441209819565
-2.2819945950237552E-4    300.1443811003058
-2.2816044738267898E-4    300.1446411283991
-2.2812143526298236E-4    300.1449011564923
-2.2808242314328577E-4    300.14516118458556
-2.2804342103025752E-4    300.14542116200346
-2.2800441891722924E-4    300.1456811394213
-2.27965416804201E-4      300.14594111683914
-2.2792642469784106E-4    300.1462010254113
-2.278874325914811E-4     300.1464609339834
-2.2784844048512117E-4    300.14672084255557
-2.278094583854296E-4     300.1469806970182
-2.27770476285738E-4      300.1472405514808
-2.2773149418604645E-4    300.14750040594345
-2.2769252209302315E-4    300.1477602603001
-2.2765354999999986E-4    300.14802011465673
-2.276145779069766E-4     300.1482799690134
-2.2757561582062164E-4    300.1485398404215
-2.2753665373426672E-4    300.14879971182955
-2.2749769164791186E-4    300.14905958323766
-2.2745873956822528E-4    300.1493194115638
-2.2741978748853862E-4    300.1495792398899
-2.2738083540885205E-4    300.149839068216
-2.2734189333583385E-4    300.15009875795744
-2.2730295126281562E-4    300.15035844769886
-2.2726400918979739E-4    300.1506181374403
-2.2722507712344747E-4    300.15087767832205
-2.271861450570975E-4     300.15113721920375
-2.2714721299074757E-4    300.1513967600855
-2.27108290931066E-4      300.15165648446305
-2.2706936887138444E-4    300.15191620884053
-2.2703044681170293E-4    300.152175933218
-2.269915347586897E-4     300.1524358432914
-2.2695262270567638E-4    300.15269575336475
-2.2691371065266313E-4    300.1529556634381
-2.268748086063182E-4     300.1532153617049
-2.268359065599733E-4     300.15347505997175
-2.267970045136284E-4     300.15373475823856
-2.2675811247395184E-4    300.1539943026778
-2.267192204342752E-4     300.15425384711705
-2.2668032839459862E-4    300.1545133915563
-2.2664144636159038E-4    300.1547727875144
-2.266025643285821E-4     300.15503218347243
-2.2656368229557385E-4    300.15529157943047
-2.2652481026923395E-4    300.15555096979773
-2.2648593824289398E-4    300.15581036016493
-2.264470662165541E-4     300.1560697505322
-2.2640820419688257E-4    300.1563291900101
-2.2636934217721096E-4    300.156588629488
-2.263304801575394E-4     300.1568480689659
-2.2629162814453613E-4    300.1571074858856
-2.2625277613153282E-4    300.15736690280534
-2.2621392411852957E-4    300.157626319725
-2.2617508211219468E-4    300.1578856649768
-2.2613624010585977E-4    300.1581450102285
-2.260973980995249E-4     300.15840435548023
-2.2605856609985835E-4    300.15866368029225
-2.2601973410019176E-4    300.1589230051042
-2.259809021005252E-4     300.15918232991623
-2.259420801075269E-4     300.1594415669403
-2.259032581145286E-4     300.1597008039643
-2.2586443612153032E-4    300.1599600409884
-2.2582562413520042E-4    300.1602193969205
-2.2578681214887057E-4    300.1604787528526
-2.257480001625407E-4     300.16073810878476
-2.257091981828791E-4     300.16099752413663
-2.2567039620321745E-4    300.16125693948845
-2.2563159422355584E-4    300.1615163548403
-2.2559280225056263E-4    300.1617756104974
-2.2555401027756934E-4    300.16203486615456
-2.2551521830457613E-4    300.16229412181167
-2.2547643633825124E-4    300.16255322079525
-2.254376543719263E-4     300.1628123197788
-2.2539887240560137E-4    300.1630714187624
-2.253601004459448E-4     300.1633304053193
-2.253213284862882E-4     300.16358939187614
-2.2528255652663163E-4    300.163848378433
-2.252437945736434E-4     300.16410732098325
-2.2520503262065517E-4    300.16436626353345
-2.2516627066766694E-4    300.1646252060837
-2.2512751872134703E-4    300.1648841800605
-2.2508876677502704E-4    300.1651431540372
-2.2505001482870713E-4    300.1654021280139
-2.2501127288905554E-4    300.1656612065033
-2.2497253094940398E-4    300.1659202849926
-2.249337890097524E-4     300.1661793634819
-2.2489505707676917E-4    300.1664384468933
-2.248563251437859E-4     300.1666975303048
-2.2481759321080262E-4    300.16695661371625
-2.247788712844877E-4     300.1672156031771
-2.2474014935817277E-4    300.167474592638
-2.2470142743185787E-4    300.16773358209883
-2.2466271551221129E-4    300.1679924555265
-2.2462400359256468E-4    300.16825132895406
-2.245852916729181E-4     300.1685102023817
-2.2454658975993986E-4    300.1687690326338
-2.2450788784696162E-4    300.16902786288597
-2.2446918593398336E-4    300.1692866931381
-2.244304940276735E-4     300.1695454670339
-2.243918021213636E-4     300.1698042409297
-2.2435311021505377E-4    300.17006301482553
-2.2431442831541217E-4    300.1703217649535
-2.2427574641577054E-4    300.1705805150815
-2.2423706451612894E-4    300.17083926520945
-2.2419839262315575E-4    300.1710979497915
-2.2415972073018246E-4    300.17135663437347
-2.2412104883720926E-4    300.17161531895545
-2.2408238695090436E-4    300.17187408110846
-2.240437250645994E-4     300.1721328432614
-2.240050631782945E-4     300.1723916054144
-2.2396641129865795E-4    300.172650414601
-2.239277594190214E-4     300.17290922378754
-2.2388910753938482E-4    300.1731680329741
-2.238504656664166E-4     300.17342667419507
-2.2381182379344836E-4    300.17368531541604
-2.2377318192048017E-4    300.173943956637
-2.2373455005418025E-4    300.1742024872001
-2.236959181878803E-4     300.1744610177632
-2.236572863215804E-4     300.17471954832627
-2.2361866446194881E-4    300.17497812206886
-2.235800426023172E-4     300.1752366958114
-2.2354142074268563E-4    300.175495269554
-2.2350280888972244E-4    300.17575397351214
-2.2346419703675918E-4    300.1760126774702
-2.23425585183796E-4      300.17627138142836