% Model:              Estacionari.mph
% Version:            COMSOL 5.3.1.275
% Date:               Jul 27 2021, 19:17
% Dimension:          1
% Nodes:              309
% Expressions:        1
% Description:        Line graph
% X                       Height
-2.5E-4                   300
-2.444730313797208E-4     300.03243479049445
-2.3894606275944152E-4    300.06498752962983
-2.3341909413916224E-4    300.0976582174063
-2.2789212551888296E-4    300.13044685382386
-2.2236515689860373E-4    300.1633534388824
-2.1683818827832445E-4    300.196377972582
-2.113112196580452E-4     300.2296486787264
-2.0578425103776594E-4    300.26330872510323
-2.0025728241748666E-4    300.2973581117124
-1.9473031379720738E-4    300.331796838554
-1.8920334517692815E-4    300.36662490562804
-1.836763765566489E-4     300.40184231293443
-1.7814940793636964E-4    300.4375791939182
-1.7262243931609038E-4    300.47407842217746
-1.670954706958111E-4     300.5113399977122
-1.6156850207553182E-4    300.54936392052235
-1.5604153345525257E-4    300.588150190608
-1.505145648349733E-4     300.6276988079691
-1.4500395566785076E-4    300.66804091176044
-1.394933465007282E-4     300.7097634186854
-1.3398273733360565E-4    300.752866328744
-1.284721281664831E-4     300.79734964193636
-1.2296151899936051E-4    300.84321335826246
-1.1745090983223797E-4    300.89045747772224
-1.1251479003405902E-4    300.9341701243367
-1.0757867023588007E-4    300.97992730977984
-1.026425504377011E-4     301.0277290340518
-9.770643063952213E-5     301.0775752971526
-9.277031084134319E-5     301.12946609908215
-8.783419104316424E-5     301.18340143984057
-8.406442476656132E-5     301.2263711185717
-8.02946584899584E-5      301.2715696094593
-7.652489221335548E-5     301.3189969125034
-7.275512593675257E-5     301.36865302770406
-6.898535966014965E-5     301.4205379550613
-6.521559338354672E-5     301.4746516945751
-6.241353479382938E-5     301.5167444396558
-5.961147620411203E-5     301.5611169112875
-5.6809417614394676E-5    301.60776910947044
-5.400735902467733E-5     301.6567010342045
-5.120530043495997E-5     301.7079126854897
-4.840324184524263E-5     301.76140406332604
-4.632111437350827E-5     301.8030527731563
-4.423898690177392E-5     301.8470100136268
-4.2156859430039567E-5    301.8932757847375
-4.0074731958305215E-5    301.9418500864884
-3.799260448657086E-5     301.9927329188796
-3.5910477014836505E-5    302.04592428191097
-3.4363309013127365E-5    302.087373380274
-3.281614101141823E-5     302.13115105030533
-3.12689730097091E-5      302.17725729200504
-2.9721805007999963E-5    302.22569210537307
-2.8174637006290833E-5    302.2764554904095
-2.66274690045817E-5      302.32954744711424
-2.5477816259187253E-5    302.3709388076411
-2.432816351379281E-5     302.41467681859933
-2.317851076839836E-5     302.4607614799889
-2.2028858023003914E-5    302.5091927918098
-2.0879205277609467E-5    302.55997075406214
-1.9729552532215023E-5    302.6130953667458
-1.8875277166815003E-5    302.6545253224524
-1.8021001801414987E-5    302.6983211907953
-1.716672643601497E-5     302.7444829717746
-1.631245107061495E-5     302.79301066539017
-1.545817570521493E-5     302.84390427164215
-1.4603900339814917E-5    302.89716379053044
-1.3969119836737934E-5    302.9387123683255
-1.3334339333660954E-5    302.9826498383929
-1.2699558830583972E-5    303.02897620073264
-1.206477832750699E-5     303.0776914553447
-1.1429997824430008E-5    303.12879560222905
-1.0795217321353027E-5    303.18228864138575
-1.0323528565730788E-5    303.2240339707069
-9.851839810108546E-6     303.2681995647043
-9.380151054486304E-6     303.31478542337794
-8.908462298864063E-6     303.3637915467278
-8.436773543241819E-6     303.41521793475397
-7.965084787619579E-6     303.46906458745633
-7.614586154110506E-6     303.5110921884372
-7.264087520601432E-6     303.5555819899317
-6.913588887092357E-6     303.60253399193977
-6.563090253583283E-6     303.65194819446145
-6.2125916200742095E-6    303.7038245974968
-5.862092986565136E-6     303.7581632010457
-5.6016474774652905E-6    303.80059992690366
-5.341201968365444E-6     303.84555658044286
-5.080756459265599E-6     303.89303316166337
-4.820310950165753E-6     303.94302967056524
-4.559865441065908E-6     303.9955461071484
-4.299419931966063E-6     304.05058247141295
-4.105890338492156E-6     304.093586294273
-3.912360745018248E-6     304.1391918868311
-3.7188311515443405E-6    304.18739924908726
-3.5253015580704324E-6    304.2382083810415
-3.3317719645965246E-6    304.2916192826939
-3.1382423711226173E-6    304.3476319540443
-2.99443603544181E-6      304.39143662891547
-2.850629699761002E-6     304.4379610595965
-2.706823364080194E-6     304.4872052460874
-2.5630170283993856E-6    304.53916918838814
-2.419210692718578E-6     304.59385288649884
-2.2754043570377703E-6    304.65125634041937
-2.1685458623427987E-6    304.6962003896634
-2.061687367647827E-6     304.74404065420555
-1.9548288729528553E-6    304.7947771340457
-1.8479703782578832E-6    304.84840982918405
-1.741111883562912E-6     304.90493873962055
-1.6342533888679403E-6    304.96436386535515
-1.5548496486552503E-6    305.0109714180936
-1.47544590844256E-6      305.06075029638396
-1.3960421682298698E-6    305.1137005002262
-1.3166384280171796E-6    305.16982202962026
-1.2372346878044896E-6    305.22911488456634
-1.1578309475917996E-6    305.2915790650643
-1.0988278764649242E-6    305.3406922309485
-1.0398248053380488E-6    305.3934373526163
-9.808217342111732E-7     305.44981443006765
-9.218186630842976E-7     305.5098234633026
-8.628155919574222E-7     305.5734644523212
-8.038125208305469E-7     305.6407373971234
-7.599683698994091E-7     305.6938382957579
-7.161242189682711E-7     305.75143395524424
-6.722800680371331E-7     305.81352437558246
-6.284359171059951E-7     305.8801095567725
-5.845917661748572E-7     305.9511894988144
-5.407476152437193E-7     306.02676420170815
-5.081673000696849E-7     306.08680504471374
-4.755869848956505E-7     306.1532931210793
-4.4300666972161615E-7    306.22622843080484
-4.104263545475817E-7     306.30561097389034
-3.7784603937354734E-7    306.3914407503359
-3.4526572419951297E-7    306.48371776014136
-3.210547701662608E-7     306.5583971104554
-2.9684381613300866E-7    306.65291776241406
-2.726328620997565E-7     306.7672797160173
-2.484219080665043E-7     306.9014829712651
-2.2421095403325214E-7    307.0555275281576
-2.0E-7                   307.2294133866946
-2.0E-7                   330.6345055576733
-2.0E-7                   330.7375640507156
-2.0E-7                   330.8218983739406
-2.0E-7                   330.88750852734836
-2.0E-7                   330.9343945109389
-2.0E-7                   330.9625563247122
-2.0E-7                   330.97199396866824
-1.7659479415434115E-7    330.97230084393084
-1.5318958830868234E-7    330.9727422951888
-1.297843824630235E-7     330.9733183224422
-1.0637917661736465E-7    330.97402892569096
-8.297397077170581E-8     330.97487410493517
-5.9568764926047E-8       330.9758538601747
-3.793803451554657E-8     330.9764616889106
-1.6307304105046127E-8    330.97680258873805
5.323426305454306E-9      330.976876559657
2.695415671595474E-8      330.97668360166745
4.8584887126455185E-8     330.97622371476945
7.021561753695561E-8      330.9754968989629
9.184634794746301E-8      330.97458074151785
1.1347707835797041E-7     330.9738009336063
1.351078087684778E-7      330.97315747522816
1.567385391789852E-7      330.97265036638345
1.783692695894926E-7      330.9722796070722
2.0E-7                    330.97204519729434
2.0E-7                    330.9626024264338
2.0E-7                    330.93443399330056
2.0E-7                    330.8875398978946
2.0E-7                    330.8219201402159
2.0E-7                    330.73757472026455
2.0E-7                    330.6345036380404
2.0E-7                    307.22827228382897
2.242109540332572E-7      307.054906242769
2.4842190806651436E-7     306.90124622695794
2.7263286209977146E-7     306.767292236396
2.968438161330286E-7      306.65304427108305
3.2105477016628583E-7     306.5585023310192
3.4526572419954293E-7     306.4836664162044
3.778460393735761E-7      306.39140123098196
4.104263545476092E-7      306.3055773509626
4.4300666972164235E-7     306.2261947761465
4.7558698489567546E-7     306.1532535065336
5.081673000697086E-7      306.0867535421239
5.407476152437418E-7      306.0266948829174
5.845917661748774E-7      305.9511364665663
6.284359171060129E-7      305.88006930101415
6.722800680371483E-7      305.8134933862608
7.161242189682838E-7      305.7514087223063
7.599683698994192E-7      305.6938153091507
8.038125208305548E-7      305.64071314679387
8.628155919574358E-7      305.5734450637314
9.218186630843169E-7      305.50980820203205
9.808217342111978E-7      305.4498025616957
1.0398248053380787E-6     305.3934281427224
1.0988278764649598E-6     305.3406849451123
1.1578309475918409E-6     305.2915729688651
1.2372346878045353E-6     305.2291094254748
1.3166384280172298E-6     305.1698175082472
1.396042168229924E-6      305.11369721718233
1.4754459084426185E-6     305.06074855228013
1.554849648655313E-6      305.0109715135407
1.6342533888680073E-6     304.9643661009639
1.74111188356299E-6       304.9049415126346
1.8479703782579726E-6     304.84841263471156
1.954828872952955E-6      304.79477946719476
2.061687367647937E-6      304.74404201008423
2.16854586234292E-6       304.69620026338004
2.2754043570379025E-6     304.6512542270821
2.4192106927187323E-6     304.5938526291102
2.5630170283995626E-6     304.5391703851659
2.7068233640803924E-6     304.4872074952492
2.8506296997612223E-6     304.4379639593602
2.994436035442052E-6      304.3914397774989
3.138242371122882E-6      304.3476349496652
3.3317719645967914E-6     304.2916237868929
3.5253015580707004E-6     304.2382137723721
3.718831151544609E-6      304.18740490610276
3.912360745018518E-6      304.1391971880849
4.105890338492428E-6      304.0935906183185
4.299419931966336E-6      304.0505851968036
4.559865441066192E-6      303.99555160266226
4.820310950166048E-6      303.943037170387
5.0807564592659025E-6     303.8930418999779
5.341201968365758E-6      303.84556579143486
5.601647477465614E-6      303.8006088447579
5.86209298656547E-6       303.7581710599471
6.212591620074571E-6      303.70383301790497
6.563090253583673E-6      303.6519562543518
6.913588887092773E-6      303.6025407692875
7.264087520601875E-6      303.55558656271205
7.614586154110975E-6      303.5110936346255
7.965084787620077E-6      303.46906198502785
8.436773543242341E-6      303.41521806919707
8.908462298864604E-6      303.3637942361098
9.380151054486864E-6      303.3147904857661
9.851839810109127E-6      303.268206818166
1.0323528565731391E-5     303.22404323330943
1.0795217321353652E-5     303.1822997311965
1.1429997824430673E-5     303.1288040259625
1.2064778327507695E-5     303.07769772288873
1.2699558830584716E-5     303.02898082197527
1.3334339333661737E-5     302.98265332322205
1.396911983673876E-5      302.9387152266291
1.4603900339815779E-5     302.8971665321964
1.545817570521584E-5      302.84390774449366
1.63124510706159E-5       302.79301459572366
1.716672643601596E-5      302.74448708588636
1.802100180141602E-5      302.6983252149817
1.887527716681608E-5      302.65452898300987
1.9729552532216138E-5     302.6130983899707
2.087920527761064E-5      302.55997281917604
2.202885802300514E-5      302.50919392785664
2.317851076839964E-5      302.46076171601254
2.432816351379414E-5      302.41467618364373
2.547781625918864E-5      302.3709373307503
2.662746900458314E-5      302.3295451573321
2.817463700629234E-5      302.27645387003616
2.972180500800155E-5      302.2256904293445
3.126897300971075E-5      302.17725483525714
3.2816141011419954E-5     302.131147087774
3.436330901312916E-5      302.0873671868952
3.591047701483836E-5      302.0459151326207
3.79926044865728E-5       301.9927247464229
4.007473195830722E-5      301.9418410965097
4.2156859430041654E-5     301.8932641828812
4.423898690177608E-5      301.8469940055373
4.632111437351052E-5      301.8030305644781
4.840324184524495E-5      301.7613738597035
5.1205300434962405E-5     301.70788743669317
5.4007359024679865E-5     301.656677585627
5.6809417614397325E-5     301.60774430650497
5.961147620411478E-5      301.56108759932715
6.241353479383224E-5      301.5167074640935
6.52155933835497E-5       301.474603900804
6.898535966015274E-5      301.42050254619113
7.275512593675578E-5      301.36862626387995
7.652489221335879E-5      301.3189750538704
8.029465848996183E-5      301.27154891616254
8.406442476656487E-5      301.22634785075644
8.78341910431679E-5       301.18337185765193
9.277031084134688E-5      301.12946452202345
9.770643063952586E-5      301.07758977372305
1.0264255043770481E-4     301.0277476127508
1.0757867023588378E-4     300.9799380391066
1.1251479003406277E-4     300.9341610527906
1.1745090983224174E-4     300.8904166538027
1.2296151899936388E-4     300.8432091894744
1.2847212816648597E-4     300.79736990324847
1.3398273733360806E-4     300.75289879512485
1.3949334650073015E-4     300.70979586510356
1.450039556678523E-4      300.66806111318465
1.505145648349744E-4      300.62769453936806
1.560415334552536E-4      300.588156637969
1.615685020755328E-4      300.54937772385097
1.6709547069581197E-4     300.511357797014
1.7262243931609114E-4     300.474096857458
1.7814940793637034E-4     300.43759490518306
1.8367637655664954E-4     300.40185194018915
1.8920334517692874E-4     300.36663384856195
1.9473031379720795E-4     300.3318035248287
2.0025728241748715E-4     300.2973609689893
2.0578425103776635E-4     300.263306181044
2.1131121965804555E-4     300.2296391609927
2.1683818827832475E-4     300.19635990883535
2.2236515689860395E-4     300.16333978675567
2.2789212551888315E-4     300.1304370529188
2.3341909413916238E-4     300.0976517073248
2.3894606275944158E-4     300.0649837499737
2.444730313797208E-4      300.0324331808654
2.5E-4                    300
